# vtk DataFile Version 2.0
classy_blocks debug output
ASCII

DATASET UNSTRUCTURED_GRID
POINTS 34 float
0.0 0.0 0.0
0.8 0.0 0.0
0.6105349999999999 0.610535 0.0
1.7763568394002506e-16 0.8 0.0
0.0 0.0 1.0
0.8 0.0 1.0
0.6105349999999999 0.610535 1.0
1.7763568394002506e-16 0.8 1.0
-0.8 9.797174393178826e-17 0.0
-0.6105349999999999 0.6105350000000002 0.0
-0.8 9.797174393178826e-17 1.0
-0.6105349999999999 0.6105350000000002 1.0
-0.6105349999999999 -0.6105349999999999 0.0
-1.7763568394002506e-16 -0.8 0.0
-0.6105349999999999 -0.6105349999999999 1.0
-1.7763568394002506e-16 -0.8 1.0
0.6105349999999999 -0.6105350000000002 0.0
0.6105349999999999 -0.6105350000000002 1.0
1.0 0.0 0.0
0.7071067811865475 0.7071067811865476 0.0
1.0 0.0 1.0
0.7071067811865475 0.7071067811865476 1.0
2.220446049250313e-16 1.0 0.0
2.220446049250313e-16 1.0 1.0
-0.7071067811865475 0.7071067811865477 0.0
-0.7071067811865475 0.7071067811865477 1.0
-1.0 1.2246467991473532e-16 0.0
-1.0 1.2246467991473532e-16 1.0
-0.7071067811865475 -0.7071067811865475 0.0
-0.7071067811865475 -0.7071067811865475 1.0
-2.220446049250313e-16 -1.0 0.0
-2.220446049250313e-16 -1.0 1.0
0.7071067811865475 -0.7071067811865477 0.0
0.7071067811865475 -0.7071067811865477 1.0

CELLS 12 108
8 0 1 2 3 4 5 6 7
8 8 0 3 9 10 4 7 11
8 12 13 0 8 14 15 4 10
8 13 16 1 0 15 17 5 4
8 1 18 19 2 5 20 21 6
8 2 19 22 3 6 21 23 7
8 3 22 24 9 7 23 25 11
8 9 24 26 8 11 25 27 10
8 8 26 28 12 10 27 29 14
8 12 28 30 13 14 29 31 15
8 13 30 32 16 15 31 33 17
8 16 32 18 1 17 33 20 5

CELL_TYPES 12
12
12
12
12
12
12
12
12
12
12
12
12

CELL_DATA 12
SCALARS block_ids float 1
LOOKUP_TABLE default
0
1
2
3
4
5
6
7
8
9
10
11
